TITLE = "LRB - 2000-2005 transient flow system - no gw bdy           "
TITLE = "very coarse discretization                                  "
TITLE = "with irrigation wells for NE and KS (no sw for NE though)   "
VARIABLES ="X","Y","Z","Zone","Head","Depth","LogDepth","Vx","Vy","Vz","Surface water evaporation","Subsurface evaporation","Subsurface transpiration","Total ET","Exchange flux","3DNode#"                                                                                                                                                                                                                                                                                                                                     
ZONE  T="olf", SOLUTIONTIME= 3.3125760000E+08, DATAPACKING=BLOCK, N=     9032, E=    17591, ZONETYPE=FEQUADRILATERAL, VARLOCATION=([        4,      8,      9,     10]=CELLCENTERED)                                                                                                                                                                                                                                                                                                                                            
# x
   463174.02607500000        462425.09989374998        461530.16998437501        460857.70433749998        460549.07428750000     
   459618.89261250000        459312.96098124998        460126.14966875000        461161.94101875002        461136.46741250000     
   461373.32477499999        461844.35346249997        462036.96103125002        462782.28383124998        463300.57907500002     
   463291.14536249998        464408.56000624999        465388.71545625001        466737.30160625000        467843.60080937500     
   468878.54739999998        469253.44034375000        469955.75897187501        470573.24367812503        470209.85382187500     
   470333.77770937502        471570.54854062502        473052.60020312498        473991.09067187499        474735.27036874997     
   475798.06267187500        477468.69984999998        478669.80681874999        479392.30193125003        480308.98088437499     
   481341.48600625002        481640.33481249999        481609.62386875000        481741.39443749998        481947.79803750000     
   481859.37144999998        481963.35190000001        482082.04913125001        481794.80860624998        481118.69575000001     
   481047.69305624999        481242.17703750002        480520.17204687500        479670.19625312497        478992.90191562503     
   478512.38896875002        477609.93763750000        476575.47468437499        475856.39417812502        476498.96014531201     
   477940.33846875001        478992.16972968797        480170.04054218798        481424.39805468702        482456.15711093799     
   483585.23679531203        484465.02622187498        485538.90258749999        486529.45697656297        487711.40424843697     
   488741.07819999999        490021.81621406297        491841.05623671901        493227.81353124999        494207.22844531201     
   495645.65146093798        496833.24243749998        498296.42236093798        499101.86855937500        500075.45700312499     
   500737.22705468797        500802.03318750003        501756.62516718701        503445.21530390601        504419.74886875000     
   505439.39990312501        506606.75728124997        507750.85891406197        509000.19897500001        510117.81208593701     
   511378.17762968701        512596.67602968798        513706.91255000001        514727.37157187500        515331.66837968701     
   516057.21277500002        517040.87521718699        517994.76040156302        519940.93545312498        521187.88720624999     
   521930.32769374998        522849.76895781199        523910.18495156203        524552.89111874998        525353.26676250005     
   526213.04959687497        527392.52630781301        528075.13972812495        529108.27898281300        530442.89079843799     
   532302.41418046900        533537.26978437498        533898.11847812496        534410.29273750004        535674.70303281303     
   536958.00740859401        538269.24675156304        540096.50263476605        541732.59881562495        542467.47750937496     
   543569.02480000001        545197.00047500001        546794.24720937503        547819.97818125004        549013.47574218805     
   550833.92454765597        552405.39892812504        553778.32639843703        555102.33960937499        555901.81345468701     
   557364.33573281299        558263.51155937498        559660.16299687501        561021.44677499996        561742.34520624997     
   562435.47255312500        563285.18756718701        564326.15202499996        564676.71111250005        564645.49241249997     
   564422.76143125002        564171.37892499997        564105.67786874995        563994.50929843797        565164.73187343800     
   566107.29217656294        566601.10259999998        567528.31343437498        567236.27485625003        567158.22648125002     
   567020.56088593695        567539.47689687496        568339.83864062501        569623.62312656199        570483.16230781202     
   571666.88275156298        572873.91767890600        574208.13296562503        575262.54946562496        576230.37891562504     
   577388.13084999996        578989.60056093696        579584.95738749998        580905.41420937504        582272.08453046903     
   582572.42564687505        583632.34306171897        585539.73070781201        587372.71106093703        587927.46694687498     
   588834.37436562497        590473.36308124999        591648.39751250006        591863.39766562497        592256.25340156304     
   593631.78065937501        594331.54713671899        595637.97301406297        597366.31884843705        598208.52514140599     
   599408.17893749999        600501.07459843694        601717.14891562494        603500.23074765597        604710.70294843800     
   606172.64563984401        608011.12839843798        608887.85186562501        609732.26427031297        611271.35134023405     
   612559.84321093699        613864.55090781301        615821.84487734397        617199.13179062505        619003.17442968697     
   619985.28588593798        621679.25845624995        622765.29625156196        624599.35412343696        626111.80219453096     
   627667.73984296899        627497.34137968696        629067.51049374999        630745.19445390604        632019.45537187497     
   633720.52822031197        635468.07441250002        636575.07457187504        636828.36308124999        637010.66490234400     
   637951.83877031202        639420.03956562502        640841.61017812497        642336.43664843799        643300.64162734395     
   644550.78113593801        646434.77794023405        647670.97404218698        649542.73591015604        651379.45107128902     
   652632.85157812503        653769.74530312500        654393.11212031206        656250.06365976599        657388.73242773395     
   659103.92646523402        660583.63747812505        661450.09666249994        662478.96035625006        663683.08044375002     
   664528.64399999997        666137.26766562497        667833.99468749994        668874.54682656203        670298.04198593798     
   671698.46438593697        673430.53126640595        672682.69680000003        672752.45548906201        673224.20106875000     
   674342.88484687498        674868.44189218804        674888.36695625004        674975.93643593695        675608.44824960898     
   676037.62134687498        676483.90606718697        676947.16779687500        677380.51647031202        677805.54880507803     
   677393.92014843703        676532.14292812499        675694.65371250000        674815.00471250003        673094.70646796899     
   671382.33890156297        669637.85365859396        668395.00459999999        668144.10395000002        668254.47400156199     
   667225.64688124997        666659.28855078097        665368.19332968700        664293.56807187502        663772.60190468701     
   662763.79211953096        662156.20392656198        662292.14840468694        662554.22858906200        662796.86483203096     
   663122.08873359405        663702.30938281305        664426.44075781200        666260.51590644498        665924.13467343699     
   665113.32880312495        664476.75225937495        663772.40362890600        662700.88656796899        661281.04034140601     
   659242.40662031202        658087.53209921904        657476.11031406303        656398.03999296902        654945.73481874994     
   653934.38649179705        652360.84778320300        649896.38277050795        648111.09447753895        646143.43938300805     
   644733.56445234397        643663.01775234402        641821.72384467802        639791.31489531300        638694.49656718795     
   637691.72422968806        636575.45132187498        635365.59771523403        633941.18013242201        632600.67217812501     
   631482.02167812502        629766.08608828101        628714.10535859398        627425.29105781298        626147.38648906199     
   625650.62335390598        624647.01683750004        623806.23698749999        622721.21747812501        621498.56401718699     
   620603.02042031195        619561.91005273396        618214.15376406303        617458.44190390594        616688.62578203098     
   615099.39281171898        613840.65185449203        612359.99433222704        611067.24765068397        610531.86641015601     
   609697.22415312496        607696.88505908195        606905.27683867200        606430.63331796904        605952.43883750006     
   605256.53883593797        604273.47468125005        601947.94111406198        600427.88517812500        599728.29748437495     
   598382.99980312504        596782.11452343804        595636.80189374997        594716.48450625001        594458.66743749997     
   593858.33199374995        593042.32545000000        593070.36625624995        592063.46990625001        590883.91055312497     
   589400.45203125000        587778.77225937496        586760.40301250003        585685.99039062497        584333.78910312499     
   583209.40505625005        582586.92551562504        581490.39301953104        579547.97452968801        577653.10074374999     
   576543.79334921902        574784.46425703098        573161.38793437497        571668.52408749994        570622.24392031203     
   569187.20229375002        567770.21459062502        566716.74304062501        566060.10451249999        565145.39303437504     
   564027.72822499997        562933.46432499995        561951.42430937500        560349.93182031298        558920.91365781298     
   557494.38366874994        556431.52525234397        555160.59826718795        553922.39965781197        552978.25347968703     
   551867.90168437501        550822.41807500005        549334.48497500003        548001.49686562503        546830.65518749994     
   545391.65057812503        543869.40270312503        541953.85025625001        540785.75886874995        539596.42519374995     
   538523.77261250000        537367.61767499999        537081.90720625001        536474.12352499994        535613.16697499994     
   534702.06335312501        533438.74030312500        532021.25566250004        530684.14220937504        529388.06200625002     
   528261.10661250004        526878.18782500003        525608.07730000000        524123.61741875001        522342.97313125001     
   521205.52923125000        520461.68779687502        518645.20166875003        517544.39713125001        517440.11319062498     
   516104.63732812501        514850.52793124999        513915.69815000001        513227.24883750000        512244.69305000000     
   511065.69206874998        510443.80867499998        509728.04684374999        509097.82599375001        508706.82491249999     
   508011.84009999997        507094.17430000001        506454.06250624999        505270.52595156297        504267.27310624998     
   504315.95883125003        503889.85834062501        503318.33427499997        503020.23154687497        501911.87415624998     
   500770.24375312502        499537.43462499999        498363.20615312498        496659.98036875000        495567.78806875000     
   494443.14358749997        493613.13212500000        492722.30153750000        491533.35156874999        490333.76504999999     
   488870.82346562500        487441.16566250002        486488.24551250000        485514.90185937501        484390.74178124999     
   482718.64630937501        482226.13838125003        481073.95480312500        479869.68946562498        479034.62993749999     
   478658.08961249999        477675.43164374999        477055.66828124999        476013.47449375002        474924.85173437500     
   473837.82909062499        472426.32982500002        471381.06980000000        469819.39853125002        468604.06374374998     
   467719.77329375001        466655.01798125001        465269.59402343800        642648.97784923017        608627.41540777963     
   602825.92559532146        580794.70315634541        463875.41895513813        462831.65622303233        462402.05592336465     
   461755.60821490944        460995.47747474740        460836.13543139969        462490.61922937521        463430.57282416831     
   464684.41199408547        466199.11252570531        468047.72319252108        470368.65193070896        471766.21409920673     
   471730.04182005505        473202.59434655192        474647.85558375501        476161.05149448971        480395.51785673434     
   482689.83404333814        482539.47227768332        482806.31892656599        482908.03818171297        482470.12006074755     
   480724.44924453791        477309.49513737549        478313.54408862552        480137.64153507556        481886.40503453667     
   483110.47794035380        484663.19630679645        486303.28414084011        490159.17971857806        494694.68261961959     
   497580.87029185134        499298.81394846016        503299.52421665849        505494.18746447912        510248.85680640809     
   516121.49933420966        518499.82240269001        523135.81895709457        524545.29722435726        527077.51498198893     
   528491.46726787626        529695.29129221791        530804.31012158829        531911.59686741384        533422.30990525067     
   534952.41627670359        535932.34797069756        538179.22012644447        539607.05627138040        542999.16647216619     
   544071.18414856249        545288.69016994128        546878.88457294728        548626.40484161850        550156.71914520359     
   551895.22299909161        553927.30925006175        556946.13166233466        563105.94934834784        565520.84530859673     
   565153.73526917561        565209.36115442810        564975.88868987130        567428.80816070782        568235.30295029841     
   568948.22771427536        568503.57950131060        568888.68421512202        571071.33632250549        575503.96729216853     
   580788.28993581852        583531.81284914864        584364.40684589872        586062.30947117216        588927.76809794945     
   593014.17475801893        595168.80821857217        596762.07896164793        598357.98709526227        599847.47789776791     
   600917.49094585911        601821.02705229516        605143.69041107676        606868.03655240836        609709.58020623273     
   610166.20420424640        611229.96519889648        612656.83196152106        614282.43801249354        615667.84257286217     
   619968.51704262011        621240.56283309823        622791.25382622273        629121.95675754501        633196.74166242464     
   634448.33196243085        635707.14886427275        636579.63866401487        637719.37687353371        637678.67708201217     
   638160.02777442604        638509.04784379771        639599.74142044224        641052.87015791459        642029.48750917485     
   643287.00235519477        643684.70699855150        644761.04602985189        645886.69473633193        647281.71018652408     
   648927.49151295552        650595.13572473347        651902.64597127237        653196.38177586079        654947.67544916633     
   657793.15179436363        659035.21771281550        660372.38819006877        662660.20857484988        668820.47414343292     
   670036.90305244259        671421.81696045818        673222.06337622891        673859.83661330538        673620.73739009770     
   673867.53298442625        674526.10651486344        675018.18224266160        675484.48967431078        675980.11588537262     
   676551.91174903384        675713.05869795219        674301.40100155829        666960.53985637717        666012.04512557096     
   665290.73321886605        663901.87895615085        662818.53182819684        661124.59912772081        661418.67073496419     
   661712.34877181740        663870.95262754080        663311.15669520653        662840.59392098140        661236.48278681457     
   656066.79657384730        654330.99024257937        653598.66919387132        652421.31828482554        650570.79537209566     
   648643.69884001382        646799.32507629332        644395.75860412174        638049.83878991345        634708.43642572721     
   631638.26689975418        630393.02247064770        628857.38521443494        627297.36010237026        625978.35764209216     
   624890.42202711327        623865.78470835567        622540.05773850996        621356.87504111580        620147.14369256760     
   618599.98807748244        615714.16920473997        609807.73419713753        608934.92181453609        607917.63135669648     
   606624.74271480064        605621.36053253373        605000.87199520145        603430.00905169453        598832.30822833779     
   593433.91054463794        591476.93354322517        589873.67133088026        588215.61148367950        586858.73871631699     
   581450.34832393355        580202.66445264954        579053.49173006369        577462.34206173779        576220.85228205414     
   574858.53557944647        573741.90894272772        572306.46354571369        569136.84845287330        567725.23378801101     
   565046.78777240368        561459.19842202740        559880.63238000800        558083.72995747253        555966.99059027981     
   554890.35899467941        553282.67697690194        552137.68436951446        550500.46630439442        549197.09213010559     
   547491.18124831805        545769.54975834058        544461.19768465171        542836.50338365708        538774.24415705330     
   536138.28231963760        532904.95288912836        529024.55367626727        527085.32334797899        519916.63840139209     
   516189.64149597596        515149.34668595548        509220.27765600348        508238.61797610455        507113.10959275818     
   505775.81728063402        502933.08936161682        501875.13002579095        498112.64398331038        494852.16299474373     
   492380.31289528764        491043.31706600252        486801.90358399012        485331.78935451247        481743.03392983193     
   480677.84534450009        478549.63105716440        474648.03371941741        473515.06477376615        472098.09961230773     
   467387.55378566851        465626.60203182744        463925.53821978119        462217.67866274324        462419.85057424352     
   463014.61757765157        464598.60121621971        469740.68534408207        471553.67699579772        473297.28704964858     
   477841.31146607565        479087.29952988430        482586.49409457814        483850.28970122326        483280.18559978571     
   483461.83591646765        482630.08753726812        482007.96030176693        479884.75277674728        479002.66163137747     
   481174.27804030321        487430.12633240194        491623.57282356563        496316.95216426591        499048.01734253339     
   500054.95230616146        500388.70965623244        506917.29806394508        508530.34486152168        512029.17725205590     
   514554.99045646423        515790.96214580891        517328.12938314938        519938.87543053919        520966.18588121794     
   522337.43199090491        526102.18496023642        529629.58146147942        539446.60587943613        541724.17950596882     
   543723.63175161823        548156.99109007337        549538.66666376824        551032.08572431759        555243.71439179662     
   558371.53826143395        562192.03631908353        564294.70790210390        565642.20483090961        566444.27985858836     
   566405.14495549630        574014.98760318884        576755.17144601699        578657.08545988461        579922.58017983532     
   582255.98989336041        584847.86700654589        587783.38698780851        590618.23042472161        591543.78780840267     
   592750.44787085650        594678.68585708644        595970.83575613552        597228.40597124526        598693.32938485267     
   601433.59224776726        602493.61961863725        603475.80540202628        608946.33882994705        612988.17333809088     
   614695.28035710531        616340.42248072440        617777.60390759027        618987.63509950601        620625.66173631861     
   624069.70596233662        625716.25172676169        627339.08251972881        630623.33237758488        634148.64571005013     
   637427.95940870885        639110.19583972532        639822.73341347009        642629.12659406394        644738.12695803645     
   646404.86372138723        650108.90744940785        651709.06380515627        656775.06770371483        659184.07633918186     
   660368.61504122149        661555.02199573780        661587.56559016719        664202.98783682275        666999.24460874207     
   668228.46477130870        669901.25598568039        671356.02663072629        672478.91905292764        672703.94934273732     
   672818.99617143546        673046.94033787667        673577.57709163579        673999.09097452892        674478.21511273307     
   675038.19458212634        674050.33782580844        674711.62093177566        672300.39596286940        666702.79900874628     
   665423.63823393744        664511.83859961538        661605.37426412606        660828.82236330584        660014.17037285445     
   660309.18626738631        660648.88309407304        661977.86026184086        662431.06704266206        662019.35798697511     
   661545.73637726007        659370.71460514015        657191.43085865944        652707.07526682492        650959.20746069960     
   649143.00630197825        647341.32387013512        645822.65619637258        643662.82187135029        640533.30755368446     
   639102.84015057224        636858.20543361094        633111.27224030450        630221.18390073976        625640.80833359226     
   624468.74592419097        622294.53230761865        621195.66727918980        620038.58053968975        617340.78166835464     
   614838.41144288820        613223.91380321607        611719.63200583542        610744.74889268726        609256.75078528561     
   608310.97348027665        607344.17038127210        604041.65033665404        602020.88034404372        600902.23708996247     
   599512.55226815178        597176.72918701021        594353.50070913776        592354.67708429834        590643.46955493593     
   588621.54369787313        585106.64519459056        583427.60881269409        582187.07310785051        579766.81866768107     
   578660.01979883236        577163.54020326352        576022.70293244848        574782.38338032248        573598.49226033373     
   571049.50279234757        566033.19187383051        563052.61994884198        559785.39471196337        558613.57633253769     
   557151.93685603666        556440.67643741786        554577.86118920823        551589.59953244904        549032.44710675289     
   546003.70052684157        544438.85418923397        541355.86647259851        539852.91241741215        538530.48701716564     
   537709.26915237121        537607.06386849470        534805.36256923166        531192.90233527205        525361.30838380277     
   521308.18805593654        518350.81312168756        517475.45613049727        516213.18221999239        514686.25836172712     
   504391.37867016176        502184.53561885166        500045.58580887003        496322.92031754897        492989.47855013126     
   489813.95325845329        488167.03713222820        483790.93005047442        480327.18199024041        475876.93031741859     
   473155.25385430176        470567.18985685747        468752.61252777529        463511.66226926673        463787.34424546239     
   464025.39117456990        464302.75354365422        464646.09048114781        465091.11743272346        466308.48582163238     
   467818.60790374019        469116.23504454491        471341.50425097608        471857.00544293085        473233.23434236512     
   474917.27976811182        476475.15888934297        479518.70609146025        480629.84886354062        481621.25580933783     
   482113.33588835649        483913.00117910857        484101.46270930208        484437.82492766622        483762.47419379273     
   484175.09652584296        483083.07615939737        482762.51617417595        481232.68037095160        479961.35235762584     
   482888.74511007639        485946.64837040240        488680.28852459951        493029.44406837114        497627.15790895087     
   501332.98460314964        504115.36533643986        505404.94609787414        506514.20982648025        507809.89129245852     
   509455.36654810113        513519.72750647162        517493.99902236223        518755.65159216343        521426.08177229576     
   524057.96707738301        525042.48606602068        526224.01536779630        527528.23817057966        528462.05136108596     
   530844.23891759908        537214.98075412028        544970.42739570350        549738.08067895286        553160.90273544192     
   556562.71815753554        559850.81662295386        563514.60000767140        564276.76291900408        565376.02194002236     
   565397.79175129649        566816.43297062989        568211.03944841388        569012.88048848696        569892.43641806080     
   570150.70321014372        570122.37142852123        572219.15680769016        575354.82156973251        576731.98492749955     
   577803.72377924528        581491.96789737418        582286.83541044570        583591.49517464323        583602.34630665812     
   586465.86364135542        589484.96523876383        592228.58519409760        594270.34685840190        596016.26354955533     
   600274.37505639950        606868.36284433759        608223.33352311049        609849.93544777145        611015.94302056474     
   611730.72964676807        613547.63863662945        615344.97229202243        617357.47427875979        622393.09213342052     
   625280.09520455857        626896.89565989503        628510.79738885781        629130.39113554859        630787.38474646874     
   631935.10272235970        632907.58709725272        635369.26345205307        636506.53751389461        638943.62566680426     
   641393.75727563992        644303.32651612826        648364.93368437805        653047.26058257453        654364.52827241365     
   655884.08978151635        658125.07033002947        660558.55775248329        661505.85883723828        662728.70140592626     
   662766.47535201407        663864.23907998833        665260.76325318392        665998.52343439881        667576.69945157308     
   669408.44989875401        671370.20016410796        671400.03253297147        671670.84549809084        671527.76441947883     
   672475.05998909974        671483.91150278482        672350.74399411411        672523.89983998402        672911.72292139707     
   673455.29646377172        672422.33934523549        672961.06172990729        671548.67728768080        670513.84229224920     
   668733.50828274107        667504.92716422467        662881.62949280371        662147.50658836961        661244.04309223755     
   660490.62200474716        659638.59182864556        659065.94656397810        658994.20945685671        660250.16086483828     
   660769.90976036619        660186.90817010391        659679.61775098077        654804.06405551103        654178.95215658809     
   652985.64316337311        651365.69604450755        649546.82449300087        647795.69678049488        645843.15963717562     
   642157.81532426411        637735.01304141129        636474.65317688824        635499.08922357683        632021.09057521867     
   628441.54672202829        627168.02429183526        623231.54993712134        621007.49987380451        619936.42080525542     
   618809.53179627657        618785.82444294810        617778.91921964823        616477.16102058021        614065.22146630951     
   612519.64476943843        611212.41069688904        610257.21288396849        608699.56400063809        607720.45560922718     
   606801.92926346487        606277.36646031495        604724.99817183777        602417.24819114187        600601.90292674361     
   597765.32992720639        595889.45527365059        592622.55261711986        591673.00707721582        586762.04001367337     
   583589.48740880692        582138.93313454196        580708.82145622990        578311.00075353077        575648.26622236695     
   572117.85092416487        570807.07422906556        569842.96897027933        568306.30483269691        566925.76391330338     
   565492.73708619724        564291.41621893633        561151.27170303778        558165.93424107472        555368.97931956069     
   552577.95584388298        550223.40702111670        547603.19794699957        544571.57472358085        542990.54374817840     